<?xml version="1.0" encoding="UTF-8"?>

<!-- generated on 2025-12-19 00:33:37 by Eclipse SUMO sumo Version 1.20.0
<configuration xmlns:xsi="http://www.w3.org/2001/XMLSchema-instance" xsi:noNamespaceSchemaLocation="http://sumo.dlr.de/xsd/sumoConfiguration.xsd">

    <input>
        <net-file value="sumo/config/../net/hk_irn.net.xml"/>
        <route-files value="sumo/config/../routes/baseline_irn.rou.xml"/>
        <additional-files value="sumo/config/../additional/bus_stops_irn.add.xml"/>
    </input>

    <output>
        <tripinfo-output value="sumo/config/../output/tripinfo_irn.xml"/>
        <stop-output value="sumo/config/../output/stopinfo_irn.xml"/>
    </output>

    <time>
        <begin value="0"/>
        <end value="3600"/>
    </time>

    <processing>
        <ignore-route-errors value="true"/>
    </processing>

    <report>
        <log value="sumo/config/simulation_irn.log"/>
        <duration-log.statistics value="true"/>
        <no-step-log value="true"/>
    </report>

</configuration>
-->

<tripinfos xmlns:xsi="http://www.w3.org/2001/XMLSchema-instance" xsi:noNamespaceSchemaLocation="http://sumo.dlr.de/xsd/tripinfo_file.xsd">
</tripinfos>
